Program Version,EnergyPlus, Version 9.2.0-921312fa1d, YMD=2022.02.16 10:44
1,5,Environment Title[],Latitude[deg],Longitude[deg],Time Zone[],Elevation[m]
2,8,Day of Simulation[],Month[],Day of Month[],DST Indicator[1=yes 0=no],Hour[],StartMinute[],EndMinute[],DayType
3,5,Cumulative Day of Simulation[],Month[],Day of Month[],DST Indicator[1=yes 0=no],DayType  ! When Daily Report Variables Requested
4,2,Cumulative Days of Simulation[],Month[]  ! When Monthly Report Variables Requested
5,1,Cumulative Days of Simulation[] ! When Run Period Report Variables Requested
6,1,Calendar Year of Simulation[] ! When Annual Report Variables Requested
7,9,Environment,Site Outdoor Air Drybulb Temperature [C] !Monthly [Value,Min,Day,Hour,Minute,Max,Day,Hour,Minute]
8,1,Environment,Site Outdoor Air Wetbulb Temperature [C] !TimeStep
95,1,THERMAL ZONE 1,Zone Air Temperature [C] !Hourly
96,7,THERMAL ZONE 1,Zone Air Relative Humidity [%] !Daily [Value,Min,Hour,Minute,Max,Hour,Minute]
135,1,THERMAL ZONE 2,Zone Air Temperature [C] !Hourly
136,7,THERMAL ZONE 2,Zone Air Relative Humidity [%] !Daily [Value,Min,Hour,Minute,Max,Hour,Minute]
End of Data Dictionary
1,RUN PERIOD 1,  18.85, -99.14,  -6.00,1280.00
2,1, 1, 1, 0, 1, 0.00,10.00,Sunday
8,10.343665494602457
2,1, 1, 1, 0, 1,10.00,20.00,Sunday
8,10.269782407200366
2,1, 1, 1, 0, 1,20.00,30.00,Sunday
8,10.35052143958676
2,1, 1, 1, 0, 1,30.00,40.00,Sunday
8,10.35052143958676
2,1, 1, 1, 0, 1,40.00,50.00,Sunday
8,10.492964176426169
2,1, 1, 1, 0, 1,50.00,60.00,Sunday
8,10.650677988517561
2,1, 1, 1, 0, 1, 0.00,60.00,Sunday
95,30.05678289851892
135,28.550607450740505
2,1, 1, 1, 0, 2, 0.00,10.00,Sunday
8,10.650874599040245
2,1, 1, 1, 0, 2,10.00,20.00,Sunday
8,10.650753761180934
2,1, 1, 1, 0, 2,20.00,30.00,Sunday
8,10.873470750665153
2,1, 1, 1, 0, 2,30.00,40.00,Sunday
8,10.770389761450084
2,1, 1, 1, 0, 2,40.00,50.00,Sunday
8,10.770198413421753
2,1, 1, 1, 0, 2,50.00,60.00,Sunday
8,10.49244431694196
2,1, 1, 1, 0, 2, 0.00,60.00,Sunday
95,30.022628589893999
135,28.272275665736186
2,1, 1, 1, 0, 3, 0.00,10.00,Sunday
8,10.49988412412321
2,1, 1, 1, 0, 3,10.00,20.00,Sunday
8,10.492825236279718
2,1, 1, 1, 0, 3,20.00,30.00,Sunday
8,10.40389722814919
2,1, 1, 1, 0, 3,30.00,40.00,Sunday
8,10.325106095451812
2,1, 1, 1, 0, 3,40.00,50.00,Sunday
8,10.294284038543303
2,1, 1, 1, 0, 3,50.00,60.00,Sunday
8,10.294408745184656
2,1, 1, 1, 0, 3, 0.00,60.00,Sunday
95,29.932201269946736
135,27.93741904619391
2,1, 1, 1, 0, 4, 0.00,10.00,Sunday
8,10.29434835768511
2,1, 1, 1, 0, 4,10.00,20.00,Sunday
8,10.390002734713667
2,1, 1, 1, 0, 4,20.00,30.00,Sunday
8,10.169404537827914
2,1, 1, 1, 0, 4,30.00,40.00,Sunday
8,10.247396391170863
2,1, 1, 1, 0, 4,40.00,50.00,Sunday
8,9.996156931122247
2,1, 1, 1, 0, 4,50.00,60.00,Sunday
8,9.818936563970015
2,1, 1, 1, 0, 4, 0.00,60.00,Sunday
95,29.794840136305493
135,27.59380258678468
2,1, 1, 1, 0, 5, 0.00,10.00,Sunday
8,9.659953559980524
2,1, 1, 1, 0, 5,10.00,20.00,Sunday
8,9.660368667596949
2,1, 1, 1, 0, 5,20.00,30.00,Sunday
8,9.55762156938564
2,1, 1, 1, 0, 5,30.00,40.00,Sunday
8,9.53037005307628
2,1, 1, 1, 0, 5,40.00,50.00,Sunday
8,9.4780736485857
2,1, 1, 1, 0, 5,50.00,60.00,Sunday
8,9.58225226945753
2,1, 1, 1, 0, 5, 0.00,60.00,Sunday
95,29.618236333154998
135,27.207359666979739
2,1, 1, 1, 0, 6, 0.00,10.00,Sunday
8,9.502762060647909
2,1, 1, 1, 0, 6,10.00,20.00,Sunday
8,9.544829743818682
2,1, 1, 1, 0, 6,20.00,30.00,Sunday
8,9.398232770001375
2,1, 1, 1, 0, 6,30.00,40.00,Sunday
8,9.54446109854244
2,1, 1, 1, 0, 6,40.00,50.00,Sunday
8,9.65270411595486
2,1, 1, 1, 0, 6,50.00,60.00,Sunday
8,9.388109298921691
2,1, 1, 1, 0, 6, 0.00,60.00,Sunday
95,29.408230821611239
135,26.852470581904968
2,1, 1, 1, 0, 7, 0.00,10.00,Sunday
8,9.664563481907509
2,1, 1, 1, 0, 7,10.00,20.00,Sunday
8,9.48483156099639
2,1, 1, 1, 0, 7,20.00,30.00,Sunday
8,9.731762847732583
2,1, 1, 1, 0, 7,30.00,40.00,Sunday
8,9.44860491687041
2,1, 1, 1, 0, 7,40.00,50.00,Sunday
8,9.051286150497824
2,1, 1, 1, 0, 7,50.00,60.00,Sunday
8,9.147578592992556
2,1, 1, 1, 0, 7, 0.00,60.00,Sunday
95,29.16974189665548
135,26.501983685535877
2,1, 1, 1, 0, 8, 0.00,10.00,Sunday
8,9.100525026511999
2,1, 1, 1, 0, 8,10.00,20.00,Sunday
8,9.133095565092752
2,1, 1, 1, 0, 8,20.00,30.00,Sunday
8,9.34856550859251
2,1, 1, 1, 0, 8,30.00,40.00,Sunday
8,9.1629825381308
2,1, 1, 1, 0, 8,40.00,50.00,Sunday
8,9.392998970327634
2,1, 1, 1, 0, 8,50.00,60.00,Sunday
8,9.451250556921666
2,1, 1, 1, 0, 8, 0.00,60.00,Sunday
95,28.910812611801295
135,26.142165072960244
2,1, 1, 1, 0, 9, 0.00,10.00,Sunday
8,9.669043655201009
2,1, 1, 1, 0, 9,10.00,20.00,Sunday
8,9.890309829493353
2,1, 1, 1, 0, 9,20.00,30.00,Sunday
8,9.829523102060247
2,1, 1, 1, 0, 9,30.00,40.00,Sunday
8,9.907729461897534
2,1, 1, 1, 0, 9,40.00,50.00,Sunday
8,10.566616794983198
2,1, 1, 1, 0, 9,50.00,60.00,Sunday
8,11.185382146727694
2,1, 1, 1, 0, 9, 0.00,60.00,Sunday
95,28.64031073795057
135,26.678322190814045
2,1, 1, 1, 0,10, 0.00,10.00,Sunday
8,10.801364108388688
2,1, 1, 1, 0,10,10.00,20.00,Sunday
8,10.991557051187812
2,1, 1, 1, 0,10,20.00,30.00,Sunday
8,10.75304357948705
2,1, 1, 1, 0,10,30.00,40.00,Sunday
8,10.897905450592609
2,1, 1, 1, 0,10,40.00,50.00,Sunday
8,10.97078219670062
2,1, 1, 1, 0,10,50.00,60.00,Sunday
8,11.260198680171463
2,1, 1, 1, 0,10, 0.00,60.00,Sunday
95,28.392308409472866
135,28.042726787716064
2,1, 1, 1, 0,11, 0.00,10.00,Sunday
8,11.089464558644366
2,1, 1, 1, 0,11,10.00,20.00,Sunday
8,11.33303235005471
2,1, 1, 1, 0,11,20.00,30.00,Sunday
8,10.917324887086773
2,1, 1, 1, 0,11,30.00,40.00,Sunday
8,11.060326226812763
2,1, 1, 1, 0,11,40.00,50.00,Sunday
8,11.131430959424293
2,1, 1, 1, 0,11,50.00,60.00,Sunday
8,11.16787562295443
2,1, 1, 1, 0,11, 0.00,60.00,Sunday
95,28.07615716961199
135,29.234694279162757
2,1, 1, 1, 0,12, 0.00,10.00,Sunday
8,11.548289508867912
2,1, 1, 1, 0,12,10.00,20.00,Sunday
8,11.570835829226402
2,1, 1, 1, 0,12,20.00,30.00,Sunday
8,11.547195755800756
2,1, 1, 1, 0,12,30.00,40.00,Sunday
8,11.915533322389054
2,1, 1, 1, 0,12,40.00,50.00,Sunday
8,11.65563396582791
2,1, 1, 1, 0,12,50.00,60.00,Sunday
8,11.733960039607846
2,1, 1, 1, 0,12, 0.00,60.00,Sunday
95,27.824826716895037
135,29.698329032334987
2,1, 1, 1, 0,13, 0.00,10.00,Sunday
8,12.206062885351873
2,1, 1, 1, 0,13,10.00,20.00,Sunday
8,12.205188154157005
2,1, 1, 1, 0,13,20.00,30.00,Sunday
8,12.13718946195603
2,1, 1, 1, 0,13,30.00,40.00,Sunday
8,11.998464719628707
2,1, 1, 1, 0,13,40.00,50.00,Sunday
8,12.394317142705
2,1, 1, 1, 0,13,50.00,60.00,Sunday
8,12.312538130176018
2,1, 1, 1, 0,13, 0.00,60.00,Sunday
95,27.64624164075453
135,29.72729470170467
2,1, 1, 1, 0,14, 0.00,10.00,Sunday
8,12.179979233209107
2,1, 1, 1, 0,14,10.00,20.00,Sunday
8,12.570732478176208
2,1, 1, 1, 0,14,20.00,30.00,Sunday
8,12.373341419758248
2,1, 1, 1, 0,14,30.00,40.00,Sunday
8,12.567718876884236
2,1, 1, 1, 0,14,40.00,50.00,Sunday
8,12.500096160480608
2,1, 1, 1, 0,14,50.00,60.00,Sunday
8,12.829706106120673
2,1, 1, 1, 0,14, 0.00,60.00,Sunday
95,27.567761734068087
135,29.80940168241507
2,1, 1, 1, 0,15, 0.00,10.00,Sunday
8,12.56386725871982
2,1, 1, 1, 0,15,10.00,20.00,Sunday
8,12.732985145399625
2,1, 1, 1, 0,15,20.00,30.00,Sunday
8,12.796038206648462
2,1, 1, 1, 0,15,30.00,40.00,Sunday
8,12.443756325807453
2,1, 1, 1, 0,15,40.00,50.00,Sunday
8,13.141373062499314
2,1, 1, 1, 0,15,50.00,60.00,Sunday
8,12.823820578627057
2,1, 1, 1, 0,15, 0.00,60.00,Sunday
95,27.601371247933888
135,30.017416973110398
2,1, 1, 1, 0,16, 0.00,10.00,Sunday
8,12.696040765919273
2,1, 1, 1, 0,16,10.00,20.00,Sunday
8,12.759698708456583
2,1, 1, 1, 0,16,20.00,30.00,Sunday
8,12.65487357479301
2,1, 1, 1, 0,16,30.00,40.00,Sunday
8,12.63190011464922
2,1, 1, 1, 0,16,40.00,50.00,Sunday
8,13.030447623288144
2,1, 1, 1, 0,16,50.00,60.00,Sunday
8,12.78005457033655
2,1, 1, 1, 0,16, 0.00,60.00,Sunday
95,27.7470625072413
135,30.14912302773666
2,1, 1, 1, 0,17, 0.00,10.00,Sunday
8,12.905121420831473
2,1, 1, 1, 0,17,10.00,20.00,Sunday
8,12.757339948502006
2,1, 1, 1, 0,17,20.00,30.00,Sunday
8,12.88421028552454
2,1, 1, 1, 0,17,30.00,40.00,Sunday
8,12.842228800829603
2,1, 1, 1, 0,17,40.00,50.00,Sunday
8,12.566037145125013
2,1, 1, 1, 0,17,50.00,60.00,Sunday
8,12.566625786485269
2,1, 1, 1, 0,17, 0.00,60.00,Sunday
95,27.99582825917818
135,30.163947559589344
2,1, 1, 1, 0,18, 0.00,10.00,Sunday
8,12.662228131232098
2,1, 1, 1, 0,18,10.00,20.00,Sunday
8,12.598181106615462
2,1, 1, 1, 0,18,20.00,30.00,Sunday
8,12.404590116593028
2,1, 1, 1, 0,18,30.00,40.00,Sunday
8,12.426314675280047
2,1, 1, 1, 0,18,40.00,50.00,Sunday
8,12.29598195636492
2,1, 1, 1, 0,18,50.00,60.00,Sunday
8,12.310547439773164
2,1, 1, 1, 0,18, 0.00,60.00,Sunday
95,28.33467947386664
135,29.952990873385877
2,1, 1, 1, 0,19, 0.00,10.00,Sunday
8,12.112849514684602
2,1, 1, 1, 0,19,10.00,20.00,Sunday
8,11.985284308942993
2,1, 1, 1, 0,19,20.00,30.00,Sunday
8,11.848475621853469
2,1, 1, 1, 0,19,30.00,40.00,Sunday
8,11.756256292207999
2,1, 1, 1, 0,19,40.00,50.00,Sunday
8,11.596583512121669
2,1, 1, 1, 0,19,50.00,60.00,Sunday
8,11.428982912476382
2,1, 1, 1, 0,19, 0.00,60.00,Sunday
95,28.72997943701004
135,29.604841685853729
2,1, 1, 1, 0,20, 0.00,10.00,Sunday
8,11.467204074436897
2,1, 1, 1, 0,20,10.00,20.00,Sunday
8,11.42994676368385
2,1, 1, 1, 0,20,20.00,30.00,Sunday
8,11.358508636312113
2,1, 1, 1, 0,20,30.00,40.00,Sunday
8,11.286799533631252
2,1, 1, 1, 0,20,40.00,50.00,Sunday
8,11.35952980888252
2,1, 1, 1, 0,20,50.00,60.00,Sunday
8,11.503467323720047
2,1, 1, 1, 0,20, 0.00,60.00,Sunday
95,29.132969126884864
135,29.369213818735245
2,1, 1, 1, 0,21, 0.00,10.00,Sunday
8,11.503150222643427
2,1, 1, 1, 0,21,10.00,20.00,Sunday
8,11.504084307183984
2,1, 1, 1, 0,21,20.00,30.00,Sunday
8,11.829041774851556
2,1, 1, 1, 0,21,30.00,40.00,Sunday
8,11.859066906954386
2,1, 1, 1, 0,21,40.00,50.00,Sunday
8,11.971550378790175
2,1, 1, 1, 0,21,50.00,60.00,Sunday
8,12.00033866043205
2,1, 1, 1, 0,21, 0.00,60.00,Sunday
95,29.496146928401079
135,29.289780509392089
2,1, 1, 1, 0,22, 0.00,10.00,Sunday
8,11.930706625619731
2,1, 1, 1, 0,22,10.00,20.00,Sunday
8,11.885140613298927
2,1, 1, 1, 0,22,20.00,30.00,Sunday
8,12.025503523899337
2,1, 1, 1, 0,22,30.00,40.00,Sunday
8,12.025695770775683
2,1, 1, 1, 0,22,40.00,50.00,Sunday
8,12.073184149373139
2,1, 1, 1, 0,22,50.00,60.00,Sunday
8,12.329870185003016
2,1, 1, 1, 0,22, 0.00,60.00,Sunday
95,29.784468047606635
135,29.238739648806108
2,1, 1, 1, 0,23, 0.00,10.00,Sunday
8,12.012661206336086
2,1, 1, 1, 0,23,10.00,20.00,Sunday
8,11.932205971051648
2,1, 1, 1, 0,23,20.00,30.00,Sunday
8,11.758135661987382
2,1, 1, 1, 0,23,30.00,40.00,Sunday
8,11.81161143466355
2,1, 1, 1, 0,23,40.00,50.00,Sunday
8,11.443046884082971
2,1, 1, 1, 0,23,50.00,60.00,Sunday
8,11.53562114094976
2,1, 1, 1, 0,23, 0.00,60.00,Sunday
95,29.98353373089428
135,29.095832441756348
2,1, 1, 1, 0,24, 0.00,10.00,Sunday
8,11.089210444610912
2,1, 1, 1, 0,24,10.00,20.00,Sunday
8,11.101271005255662
2,1, 1, 1, 0,24,20.00,30.00,Sunday
8,11.027033574896157
2,1, 1, 1, 0,24,30.00,40.00,Sunday
8,10.95266760958861
2,1, 1, 1, 0,24,40.00,50.00,Sunday
8,11.036228176934899
2,1, 1, 1, 0,24,50.00,60.00,Sunday
8,10.952431235018956
2,1, 1, 1, 0,24, 0.00,60.00,Sunday
95,30.09579923613997
135,28.842978585214838
3,1, 1, 1, 0,Sunday
96,19.321819968193883,18.005820797143728,24,60,20.864050304505846,14,30
136,19.633881697692038,17.888467827298596,17,20,22.81383780583091, 8,50
2,2, 1, 2, 0, 1, 0.00,10.00,Monday
8,10.877594895894065
2,2, 1, 2, 0, 1,10.00,20.00,Monday
8,10.793188665332965
2,2, 1, 2, 0, 1,20.00,30.00,Monday
8,10.961122990745166
2,2, 1, 2, 0, 1,30.00,40.00,Monday
8,10.88589667040268
2,2, 1, 2, 0, 1,40.00,50.00,Monday
8,10.810591923724067
2,2, 1, 2, 0, 1,50.00,60.00,Monday
8,10.735771394510698
2,2, 1, 2, 0, 1, 0.00,60.00,Monday
95,30.12670692354838
135,28.583611389620939
2,2, 1, 2, 0, 2, 0.00,10.00,Monday
8,10.662088679822439
2,2, 1, 2, 0, 2,10.00,20.00,Monday
8,10.73864999978392
2,2, 1, 2, 0, 2,20.00,30.00,Monday
8,10.738704464900874
2,2, 1, 2, 0, 2,30.00,40.00,Monday
8,10.662222910247657
2,2, 1, 2, 0, 2,40.00,50.00,Monday
8,10.662222910247657
2,2, 1, 2, 0, 2,50.00,60.00,Monday
8,10.585049157667417
2,2, 1, 2, 0, 2, 0.00,60.00,Monday
95,30.09022385473597
135,28.295887919195747
2,2, 1, 2, 0, 3, 0.00,10.00,Monday
8,10.503995540105752
2,2, 1, 2, 0, 3,10.00,20.00,Monday
8,10.427021453609358
2,2, 1, 2, 0, 3,20.00,30.00,Monday
8,10.194893169823475
2,2, 1, 2, 0, 3,30.00,40.00,Monday
8,10.117473963945227
2,2, 1, 2, 0, 3,40.00,50.00,Monday
8,10.195352355214128
2,2, 1, 2, 0, 3,50.00,60.00,Monday
8,10.107486568771277
2,2, 1, 2, 0, 3, 0.00,60.00,Monday
95,29.997739978481495
135,27.971248505793509
2,2, 1, 2, 0, 4, 0.00,10.00,Monday
8,10.01609485451312
2,2, 1, 2, 0, 4,10.00,20.00,Monday
8,9.85989923712222
2,2, 1, 2, 0, 4,20.00,30.00,Monday
8,9.719247669183158
2,2, 1, 2, 0, 4,30.00,40.00,Monday
8,9.71880124217734
2,2, 1, 2, 0, 4,40.00,50.00,Monday
8,9.64104723626059
2,2, 1, 2, 0, 4,50.00,60.00,Monday
8,9.641186100446977
2,2, 1, 2, 0, 4, 0.00,60.00,Monday
95,29.85883384169431
135,27.607915243408688
2,2, 1, 2, 0, 5, 0.00,10.00,Monday
8,9.57730999092284
2,2, 1, 2, 0, 5,10.00,20.00,Monday
8,9.485520040197889
2,2, 1, 2, 0, 5,20.00,30.00,Monday
8,9.468856722453137
2,2, 1, 2, 0, 5,30.00,40.00,Monday
8,9.290776121791364
2,2, 1, 2, 0, 5,40.00,50.00,Monday
8,9.370088558729215
2,2, 1, 2, 0, 5,50.00,60.00,Monday
8,9.449257895778624
2,2, 1, 2, 0, 5, 0.00,60.00,Monday
95,29.681517781300966
135,27.237768517907769
2,2, 1, 2, 0, 6, 0.00,10.00,Monday
8,9.448896950820063
2,2, 1, 2, 0, 6,10.00,20.00,Monday
8,9.50598016007232
2,2, 1, 2, 0, 6,20.00,30.00,Monday
8,9.346971973013386
2,2, 1, 2, 0, 6,30.00,40.00,Monday
8,9.241542835371943
2,2, 1, 2, 0, 6,40.00,50.00,Monday
8,9.161619599033065
2,2, 1, 2, 0, 6,50.00,60.00,Monday
8,8.86618744422237
2,2, 1, 2, 0, 6, 0.00,60.00,Monday
95,29.471449476945698
135,26.85618585239327
2,2, 1, 2, 0, 7, 0.00,10.00,Monday
8,8.948399928394098
2,2, 1, 2, 0, 7,10.00,20.00,Monday
8,8.701295996384538
2,2, 1, 2, 0, 7,20.00,30.00,Monday
8,8.703294609943919
2,2, 1, 2, 0, 7,30.00,40.00,Monday
8,8.82326090420433
2,2, 1, 2, 0, 7,40.00,50.00,Monday
8,8.904821328414125
2,2, 1, 2, 0, 7,50.00,60.00,Monday
8,8.905080846797869
2,2, 1, 2, 0, 7, 0.00,60.00,Monday
95,29.233082215531238
135,26.415971383131806
2,2, 1, 2, 0, 8, 0.00,10.00,Monday
8,8.905340136631248
2,2, 1, 2, 0, 8,10.00,20.00,Monday
8,8.785972481188257
2,2, 1, 2, 0, 8,20.00,30.00,Monday
8,8.786363292542962
2,2, 1, 2, 0, 8,30.00,40.00,Monday
8,8.620519384331857
2,2, 1, 2, 0, 8,40.00,50.00,Monday
8,8.746315637851345
2,2, 1, 2, 0, 8,50.00,60.00,Monday
8,9.069390606854738
2,2, 1, 2, 0, 8, 0.00,60.00,Monday
95,28.974291212507749
135,26.062163895477615
2,2, 1, 2, 0, 9, 0.00,10.00,Monday
8,9.296516086984712
2,2, 1, 2, 0, 9,10.00,20.00,Monday
8,9.589963506176627
2,2, 1, 2, 0, 9,20.00,30.00,Monday
8,10.084801602103037
2,2, 1, 2, 0, 9,30.00,40.00,Monday
8,10.511035661295569
2,2, 1, 2, 0, 9,40.00,50.00,Monday
8,10.593125652737678
2,2, 1, 2, 0, 9,50.00,60.00,Monday
8,10.823085209062834
2,2, 1, 2, 0, 9, 0.00,60.00,Monday
95,28.707256965642768
135,26.658241868270939
2,2, 1, 2, 0,10, 0.00,10.00,Monday
8,10.366573543495687
2,2, 1, 2, 0,10,10.00,20.00,Monday
8,10.367721901697312
2,2, 1, 2, 0,10,20.00,30.00,Monday
8,10.061010305281995
2,2, 1, 2, 0,10,30.00,40.00,Monday
8,10.29244788374528
2,2, 1, 2, 0,10,40.00,50.00,Monday
8,10.444238745145763
2,2, 1, 2, 0,10,50.00,60.00,Monday
8,10.140101455660132
2,2, 1, 2, 0,10, 0.00,60.00,Monday
95,28.42214621380705
135,28.206148443047839
2,2, 1, 2, 0,11, 0.00,10.00,Monday
8,10.519038221887
2,2, 1, 2, 0,11,10.00,20.00,Monday
8,10.364843222288308
2,2, 1, 2, 0,11,20.00,30.00,Monday
8,10.589518450379284
2,2, 1, 2, 0,11,30.00,40.00,Monday
8,10.804005705766642
2,2, 1, 2, 0,11,40.00,50.00,Monday
8,11.140259530093207
2,2, 1, 2, 0,11,50.00,60.00,Monday
8,10.993661822873499
2,2, 1, 2, 0,11, 0.00,60.00,Monday
95,28.115874416628669
135,29.29583965827335
2,2, 1, 2, 0,12, 0.00,10.00,Monday
8,10.700041219836463
2,2, 1, 2, 0,12,10.00,20.00,Monday
8,10.898296501008277
2,2, 1, 2, 0,12,20.00,30.00,Monday
8,11.01669542055399
2,2, 1, 2, 0,12,30.00,40.00,Monday
8,11.015545286264084
2,2, 1, 2, 0,12,40.00,50.00,Monday
8,11.799215324499123
2,2, 1, 2, 0,12,50.00,60.00,Monday
8,11.411480524377773
2,2, 1, 2, 0,12, 0.00,60.00,Monday
95,27.85609793490737
135,29.74906222242511
2,2, 1, 2, 0,13, 0.00,10.00,Monday
8,11.585789498173064
2,2, 1, 2, 0,13,10.00,20.00,Monday
8,11.65537449262335
2,2, 1, 2, 0,13,20.00,30.00,Monday
8,11.65420645060397
2,2, 1, 2, 0,13,30.00,40.00,Monday
8,11.864203491444635
2,2, 1, 2, 0,13,40.00,50.00,Monday
8,12.02751349159321
2,2, 1, 2, 0,13,50.00,60.00,Monday
8,12.528074290828684
2,2, 1, 2, 0,13, 0.00,60.00,Monday
95,27.66542139391836
135,29.726157530933805
2,2, 1, 2, 0,14, 0.00,10.00,Monday
8,11.97321944209524
2,2, 1, 2, 0,14,10.00,20.00,Monday
8,12.524827959964642
2,2, 1, 2, 0,14,20.00,30.00,Monday
8,12.592235985525882
2,2, 1, 2, 0,14,30.00,40.00,Monday
8,12.038232816404934
2,2, 1, 2, 0,14,40.00,50.00,Monday
8,12.597048494035059
2,2, 1, 2, 0,14,50.00,60.00,Monday
8,12.458867198128808
2,2, 1, 2, 0,14, 0.00,60.00,Monday
95,27.57443965162598
135,29.75583609694036
2,2, 1, 2, 0,15, 0.00,10.00,Monday
8,12.188974476027905
2,2, 1, 2, 0,15,10.00,20.00,Monday
8,12.455363711509265
2,2, 1, 2, 0,15,20.00,30.00,Monday
8,12.576344644832542
2,2, 1, 2, 0,15,30.00,40.00,Monday
8,12.65964934483773
2,2, 1, 2, 0,15,40.00,50.00,Monday
8,12.375882115246095
2,2, 1, 2, 0,15,50.00,60.00,Monday
8,12.451482971582852
2,2, 1, 2, 0,15, 0.00,60.00,Monday
95,27.59735446526054
135,29.918080631384244
2,2, 1, 2, 0,16, 0.00,10.00,Monday
8,12.383733357568146
2,2, 1, 2, 0,16,10.00,20.00,Monday
8,12.61980655705946
2,2, 1, 2, 0,16,20.00,30.00,Monday
8,12.769965466373732
2,2, 1, 2, 0,16,30.00,40.00,Monday
8,12.769090105825248
2,2, 1, 2, 0,16,40.00,50.00,Monday
8,12.900926446589687
2,2, 1, 2, 0,16,50.00,60.00,Monday
8,12.503629917216197
2,2, 1, 2, 0,16, 0.00,60.00,Monday
95,27.73305072715256
135,30.091852566833059
2,2, 1, 2, 0,17, 0.00,10.00,Monday
8,12.748130106522874
2,2, 1, 2, 0,17,10.00,20.00,Monday
8,12.747235600824466
2,2, 1, 2, 0,17,20.00,30.00,Monday
8,12.355867769358447
2,2, 1, 2, 0,17,30.00,40.00,Monday
8,12.289893155980338
2,2, 1, 2, 0,17,40.00,50.00,Monday
8,12.83370552831866
2,2, 1, 2, 0,17,50.00,60.00,Monday
8,12.436240255069432
2,2, 1, 2, 0,17, 0.00,60.00,Monday
95,27.971505270038177
135,30.15994908916836
2,2, 1, 2, 0,18, 0.00,10.00,Monday
8,12.551402010077333
2,2, 1, 2, 0,18,10.00,20.00,Monday
8,12.681533503314537
2,2, 1, 2, 0,18,20.00,30.00,Monday
8,12.312510985833324
2,2, 1, 2, 0,18,30.00,40.00,Monday
8,12.450988806992271
2,2, 1, 2, 0,18,40.00,50.00,Monday
8,12.247802154193474
2,2, 1, 2, 0,18,50.00,60.00,Monday
8,12.044640552295178
2,2, 1, 2, 0,18, 0.00,60.00,Monday
95,28.30367153083623
135,30.01357554577326
2,2, 1, 2, 0,19, 0.00,10.00,Monday
8,12.03830102604061
2,2, 1, 2, 0,19,10.00,20.00,Monday
8,11.833336441457267
2,2, 1, 2, 0,19,20.00,30.00,Monday
8,11.818785712193988
2,2, 1, 2, 0,19,30.00,40.00,Monday
8,11.611997816199305
2,2, 1, 2, 0,19,40.00,50.00,Monday
8,11.590779578676939
2,2, 1, 2, 0,19,50.00,60.00,Monday
8,11.564172740324219
2,2, 1, 2, 0,19, 0.00,60.00,Monday
95,28.70252083821789
135,29.626757380589834
2,2, 1, 2, 0,20, 0.00,10.00,Monday
8,11.235651132431645
2,2, 1, 2, 0,20,10.00,20.00,Monday
8,11.040799192936142
2,2, 1, 2, 0,20,20.00,30.00,Monday
8,11.06042758292129
2,2, 1, 2, 0,20,30.00,40.00,Monday
8,11.001762123355539
2,2, 1, 2, 0,20,40.00,50.00,Monday
8,10.93865527292114
2,2, 1, 2, 0,20,50.00,60.00,Monday
8,11.023014248880397
2,2, 1, 2, 0,20, 0.00,60.00,Monday
95,29.120398740523084
135,29.324315777186599
2,2, 1, 2, 0,21, 0.00,10.00,Monday
8,11.024050310728243
2,2, 1, 2, 0,21,10.00,20.00,Monday
8,10.955429531122807
2,2, 1, 2, 0,21,20.00,30.00,Monday
8,10.878930694479433
2,2, 1, 2, 0,21,30.00,40.00,Monday
8,11.029427859798496
2,2, 1, 2, 0,21,40.00,50.00,Monday
8,10.878966617863523
2,2, 1, 2, 0,21,50.00,60.00,Monday
8,10.954020481168053
2,2, 1, 2, 0,21, 0.00,60.00,Monday
95,29.508681094021595
135,29.140563167077305
2,2, 1, 2, 0,22, 0.00,10.00,Monday
8,10.880061597188917
2,2, 1, 2, 0,22,10.00,20.00,Monday
8,10.723573667189927
2,2, 1, 2, 0,22,20.00,30.00,Monday
8,10.723883060754336
2,2, 1, 2, 0,22,30.00,40.00,Monday
8,10.648874312222985
2,2, 1, 2, 0,22,40.00,50.00,Monday
8,10.574199268905242
2,2, 1, 2, 0,22,50.00,60.00,Monday
8,10.719654854523596
2,2, 1, 2, 0,22, 0.00,60.00,Monday
95,29.82410464196953
135,29.006567337076395
2,2, 1, 2, 0,23, 0.00,10.00,Monday
8,10.720779858829547
2,2, 1, 2, 0,23,10.00,20.00,Monday
8,10.712711149133148
2,2, 1, 2, 0,23,20.00,30.00,Monday
8,10.876614697544185
2,2, 1, 2, 0,23,30.00,40.00,Monday
8,10.882798686438619
2,2, 1, 2, 0,23,40.00,50.00,Monday
8,10.634253780647449
2,2, 1, 2, 0,23,50.00,60.00,Monday
8,10.622870283987663
2,2, 1, 2, 0,23, 0.00,60.00,Monday
95,30.043796943943659
135,28.826690862892023
2,2, 1, 2, 0,24, 0.00,10.00,Monday
8,10.556796167667916
2,2, 1, 2, 0,24,10.00,20.00,Monday
8,10.573476383701986
2,2, 1, 2, 0,24,20.00,30.00,Monday
8,10.651466026960048
2,2, 1, 2, 0,24,30.00,40.00,Monday
8,10.557744604643933
2,2, 1, 2, 0,24,40.00,50.00,Monday
8,10.342749455835344
2,2, 1, 2, 0,24,50.00,60.00,Monday
8,10.111705388507084
2,2, 1, 2, 0,24, 0.00,60.00,Monday
95,30.166628233358677
135,28.593086759355044
3,2, 1, 2, 0,Monday
96,19.281777699990334,17.905494501406385,24,60,20.841574528480803,14,30
136,19.669921828569625,17.875082717339269,17,20,22.959038098639899, 8,50
2,3, 1, 3, 0, 1, 0.00,10.00,Tuesday
8,10.034450230539072
2,3, 1, 3, 0, 1,10.00,20.00,Tuesday
8,9.956984552653008
2,3, 1, 3, 0, 1,20.00,30.00,Tuesday
8,9.946113414684194
2,3, 1, 3, 0, 1,30.00,40.00,Tuesday
8,9.868699201692536
2,3, 1, 3, 0, 1,40.00,50.00,Tuesday
8,9.80289715736741
2,3, 1, 3, 0, 1,50.00,60.00,Tuesday
8,9.803177420261676
2,3, 1, 3, 0, 1, 0.00,60.00,Tuesday
95,30.19446649075861
135,28.305089705608809
2,3, 1, 3, 0, 2, 0.00,10.00,Tuesday
8,9.480118970599444
2,3, 1, 3, 0, 2,10.00,20.00,Tuesday
8,9.540666843601894
2,3, 1, 3, 0, 2,20.00,30.00,Tuesday
8,9.420004724030145
2,3, 1, 3, 0, 2,30.00,40.00,Tuesday
8,9.341077073971937
2,3, 1, 3, 0, 2,40.00,50.00,Tuesday
8,9.394719115017706
2,3, 1, 3, 0, 2,50.00,60.00,Tuesday
8,9.315029612401032
2,3, 1, 3, 0, 2, 0.00,60.00,Tuesday
95,30.139878273498579
135,27.950973387365197
2,3, 1, 3, 0, 3, 0.00,10.00,Tuesday
8,9.366959144137447
2,3, 1, 3, 0, 3,10.00,20.00,Tuesday
8,9.256025218067482
2,3, 1, 3, 0, 3,20.00,30.00,Tuesday
8,9.256085382749886
2,3, 1, 3, 0, 3,30.00,40.00,Tuesday
8,9.286439467808151
2,3, 1, 3, 0, 3,40.00,50.00,Tuesday
8,9.255848631235134
2,3, 1, 3, 0, 3,50.00,60.00,Tuesday
8,9.22247865762429
2,3, 1, 3, 0, 3, 0.00,60.00,Tuesday
95,30.0196997768616
135,27.560154913075825
2,3, 1, 3, 0, 4, 0.00,10.00,Tuesday
8,9.268305604636515
2,3, 1, 3, 0, 4,10.00,20.00,Tuesday
8,9.268361992850816
2,3, 1, 3, 0, 4,20.00,30.00,Tuesday
8,9.349672349617892
2,3, 1, 3, 0, 4,30.00,40.00,Tuesday
8,9.513404807212892
2,3, 1, 3, 0, 4,40.00,50.00,Tuesday
8,9.513066902168508
2,3, 1, 3, 0, 4,50.00,60.00,Tuesday
8,9.642063779732086
2,3, 1, 3, 0, 4, 0.00,60.00,Tuesday
95,29.8469720007165
135,27.174152764865739
2,3, 1, 3, 0, 5, 0.00,10.00,Tuesday
8,9.806106598985262
2,3, 1, 3, 0, 5,10.00,20.00,Tuesday
8,9.872728633366066
2,3, 1, 3, 0, 5,20.00,30.00,Tuesday
8,9.953834356853774
2,3, 1, 3, 0, 5,30.00,40.00,Tuesday
8,9.889012368265155
2,3, 1, 3, 0, 5,40.00,50.00,Tuesday
8,9.889364767149733
2,3, 1, 3, 0, 5,50.00,60.00,Tuesday
8,10.086364869840028
2,3, 1, 3, 0, 5, 0.00,60.00,Tuesday
95,29.631191601033824
135,26.813039110858836
2,3, 1, 3, 0, 6, 0.00,10.00,Tuesday
8,10.004932287520495
2,3, 1, 3, 0, 6,10.00,20.00,Tuesday
8,9.971664974857183
2,3, 1, 3, 0, 6,20.00,30.00,Tuesday
8,9.972099454880985
2,3, 1, 3, 0, 6,30.00,40.00,Tuesday
8,9.770787756261568
2,3, 1, 3, 0, 6,40.00,50.00,Tuesday
8,9.64891878493119
2,3, 1, 3, 0, 6,50.00,60.00,Tuesday
8,9.483067884198667
2,3, 1, 3, 0, 6, 0.00,60.00,Tuesday
95,29.379766759904006
135,26.428221585853867
2,3, 1, 3, 0, 7, 0.00,10.00,Tuesday
8,9.263092926895409
2,3, 1, 3, 0, 7,10.00,20.00,Tuesday
8,9.246748681791209
2,3, 1, 3, 0, 7,20.00,30.00,Tuesday
8,9.246525615429134
2,3, 1, 3, 0, 7,30.00,40.00,Tuesday
8,9.07611040050469
2,3, 1, 3, 0, 7,40.00,50.00,Tuesday
8,9.348039116142722
2,3, 1, 3, 0, 7,50.00,60.00,Tuesday
8,9.383856261502713
2,3, 1, 3, 0, 7, 0.00,60.00,Tuesday
95,29.102154780644957
135,25.966666882982226
2,3, 1, 3, 0, 8, 0.00,10.00,Tuesday
8,9.12921017806023
2,3, 1, 3, 0, 8,10.00,20.00,Tuesday
8,9.129670887968068
2,3, 1, 3, 0, 8,20.00,30.00,Tuesday
8,9.264704666036794
2,3, 1, 3, 0, 8,30.00,40.00,Tuesday
8,9.565181250992782
2,3, 1, 3, 0, 8,40.00,50.00,Tuesday
8,9.26534412204829
2,3, 1, 3, 0, 8,50.00,60.00,Tuesday
8,9.51927739370901
2,3, 1, 3, 0, 8, 0.00,60.00,Tuesday
95,28.807882634201957
135,25.57606022244346
2,3, 1, 3, 0, 9, 0.00,10.00,Tuesday
8,9.649814580455212
2,3, 1, 3, 0, 9,10.00,20.00,Tuesday
8,9.985063560385428
2,3, 1, 3, 0, 9,20.00,30.00,Tuesday
8,10.518943802607833
2,3, 1, 3, 0, 9,30.00,40.00,Tuesday
8,11.395379537210689
2,3, 1, 3, 0, 9,40.00,50.00,Tuesday
8,11.10402011437767
2,3, 1, 3, 0, 9,50.00,60.00,Tuesday
8,11.426169461997973
2,3, 1, 3, 0, 9, 0.00,60.00,Tuesday
95,28.504129081715847
135,26.063667423539074
2,3, 1, 3, 0,10, 0.00,10.00,Tuesday
8,10.957179470372845
2,3, 1, 3, 0,10,10.00,20.00,Tuesday
8,11.430945092274222
2,3, 1, 3, 0,10,20.00,30.00,Tuesday
8,11.431362441562183
2,3, 1, 3, 0,10,30.00,40.00,Tuesday
8,11.19881945537365
2,3, 1, 3, 0,10,40.00,50.00,Tuesday
8,11.114804400077177
2,3, 1, 3, 0,10,50.00,60.00,Tuesday
8,11.276593095792777
2,3, 1, 3, 0,10, 0.00,60.00,Tuesday
95,28.226236296460106
135,27.449635332410904
2,3, 1, 3, 0,11, 0.00,10.00,Tuesday
8,11.124495996012188
2,3, 1, 3, 0,11,10.00,20.00,Tuesday
8,11.27844467487362
2,3, 1, 3, 0,11,20.00,30.00,Tuesday
8,11.501664026941011
2,3, 1, 3, 0,11,30.00,40.00,Tuesday
8,11.736413255265744
2,3, 1, 3, 0,11,40.00,50.00,Tuesday
8,12.0050163393869
2,3, 1, 3, 0,11,50.00,60.00,Tuesday
8,11.79361319288902
2,3, 1, 3, 0,11, 0.00,60.00,Tuesday
95,27.874556679036947
135,28.65177271298911
2,3, 1, 3, 0,12, 0.00,10.00,Tuesday
8,11.778668977032745
2,3, 1, 3, 0,12,10.00,20.00,Tuesday
8,11.834566498154827
2,3, 1, 3, 0,12,20.00,30.00,Tuesday
8,12.056321231867515
2,3, 1, 3, 0,12,30.00,40.00,Tuesday
8,12.444665547351882
2,3, 1, 3, 0,12,40.00,50.00,Tuesday
8,12.337572979783387
2,3, 1, 3, 0,12,50.00,60.00,Tuesday
8,12.481564465585999
2,3, 1, 3, 0,12, 0.00,60.00,Tuesday
95,27.59182071290222
135,29.10818587040592
2,3, 1, 3, 0,13, 0.00,10.00,Tuesday
8,12.076377996441325
2,3, 1, 3, 0,13,10.00,20.00,Tuesday
8,12.551250358283792
2,3, 1, 3, 0,13,20.00,30.00,Tuesday
8,12.583594224428312
2,3, 1, 3, 0,13,30.00,40.00,Tuesday
8,12.43881515503569
2,3, 1, 3, 0,13,40.00,50.00,Tuesday
8,12.509534199863852
2,3, 1, 3, 0,13,50.00,60.00,Tuesday
8,12.46584630815332
2,3, 1, 3, 0,13, 0.00,60.00,Tuesday
95,27.385018318266437
135,29.108629649112716
2,3, 1, 3, 0,14, 0.00,10.00,Tuesday
8,12.70055199423111
2,3, 1, 3, 0,14,10.00,20.00,Tuesday
8,12.698865356420959
2,3, 1, 3, 0,14,20.00,30.00,Tuesday
8,12.416408805364167
2,3, 1, 3, 0,14,30.00,40.00,Tuesday
8,12.655351664797179
2,3, 1, 3, 0,14,40.00,50.00,Tuesday
8,12.792002429528852
2,3, 1, 3, 0,14,50.00,60.00,Tuesday
8,13.069698514448368
2,3, 1, 3, 0,14, 0.00,60.00,Tuesday
95,27.282681168231155
135,29.16557123332959
2,3, 1, 3, 0,15, 0.00,10.00,Tuesday
8,12.863399393655455
2,3, 1, 3, 0,15,10.00,20.00,Tuesday
8,13.265658902927435
2,3, 1, 3, 0,15,20.00,30.00,Tuesday
8,13.331970959763787
2,3, 1, 3, 0,15,30.00,40.00,Tuesday
8,13.065699294704935
2,3, 1, 3, 0,15,40.00,50.00,Tuesday
8,12.99667220314365
2,3, 1, 3, 0,15,50.00,60.00,Tuesday
8,12.791671117937512
2,3, 1, 3, 0,15, 0.00,60.00,Tuesday
95,27.298769738455268
135,29.3860462077794
2,3, 1, 3, 0,16, 0.00,10.00,Tuesday
8,12.995457143461561
2,3, 1, 3, 0,16,10.00,20.00,Tuesday
8,13.063518066307259
2,3, 1, 3, 0,16,20.00,30.00,Tuesday
8,13.047456813388939
2,3, 1, 3, 0,16,30.00,40.00,Tuesday
8,13.380929650317963
2,3, 1, 3, 0,16,40.00,50.00,Tuesday
8,13.261032129432979
2,3, 1, 3, 0,16,50.00,60.00,Tuesday
8,13.227526481491904
2,3, 1, 3, 0,16, 0.00,60.00,Tuesday
95,27.42946089898976
135,29.5419497240939
2,3, 1, 3, 0,17, 0.00,10.00,Tuesday
8,13.246471995459335
2,3, 1, 3, 0,17,10.00,20.00,Tuesday
8,12.922201522712588
2,3, 1, 3, 0,17,20.00,30.00,Tuesday
8,12.921579276733758
2,3, 1, 3, 0,17,30.00,40.00,Tuesday
8,13.259417673881826
2,3, 1, 3, 0,17,40.00,50.00,Tuesday
8,13.192059906299967
2,3, 1, 3, 0,17,50.00,60.00,Tuesday
8,13.057065029671622
2,3, 1, 3, 0,17, 0.00,60.00,Tuesday
95,27.66365308475319
135,29.577139173505317
2,3, 1, 3, 0,18, 0.00,10.00,Tuesday
8,12.98024884665467
2,3, 1, 3, 0,18,10.00,20.00,Tuesday
8,12.71279631771068
2,3, 1, 3, 0,18,20.00,30.00,Tuesday
8,12.922618585303726
2,3, 1, 3, 0,18,30.00,40.00,Tuesday
8,12.72094439433271
2,3, 1, 3, 0,18,40.00,50.00,Tuesday
8,12.7886097084566
2,3, 1, 3, 0,18,50.00,60.00,Tuesday
8,12.722309953863208
2,3, 1, 3, 0,18, 0.00,60.00,Tuesday
95,27.990513941644278
135,29.352935464017944
2,3, 1, 3, 0,19, 0.00,10.00,Tuesday
8,12.517887846458038
2,3, 1, 3, 0,19,10.00,20.00,Tuesday
8,12.580404417413286
2,3, 1, 3, 0,19,20.00,30.00,Tuesday
8,12.313761894807128
2,3, 1, 3, 0,19,30.00,40.00,Tuesday
8,12.512363052496234
2,3, 1, 3, 0,19,40.00,50.00,Tuesday
8,12.481671713970208
2,3, 1, 3, 0,19,50.00,60.00,Tuesday
8,12.387303034744818
2,3, 1, 3, 0,19, 0.00,60.00,Tuesday
95,28.384094475121299
135,29.065771585662899
2,3, 1, 3, 0,20, 0.00,10.00,Tuesday
8,12.31393906088326
2,3, 1, 3, 0,20,10.00,20.00,Tuesday
8,11.913650809556869
2,3, 1, 3, 0,20,20.00,30.00,Tuesday
8,12.080714378837856
2,3, 1, 3, 0,20,30.00,40.00,Tuesday
8,11.930497086046199
2,3, 1, 3, 0,20,40.00,50.00,Tuesday
8,11.943384856522858
2,3, 1, 3, 0,20,50.00,60.00,Tuesday
8,11.86829229856153
2,3, 1, 3, 0,20, 0.00,60.00,Tuesday
95,28.791630908360604
135,28.834925792715667
2,3, 1, 3, 0,21, 0.00,10.00,Tuesday
8,11.86844149298266
2,3, 1, 3, 0,21,10.00,20.00,Tuesday
8,12.020340941772333
2,3, 1, 3, 0,21,20.00,30.00,Tuesday
8,11.916999882822724
2,3, 1, 3, 0,21,30.00,40.00,Tuesday
8,11.916605633892292
2,3, 1, 3, 0,21,40.00,50.00,Tuesday
8,11.99148982340804